file 32916171 1557535176                                        
version 2
run Infrastructure-4-20190510-21:39:29-6084
attr configname Infrastructure
attr datetime 20190510-21:39:29
attr experiment Infrastructure
attr inifile omnetpp.ini
attr iterationvars "$count=xmldoc(\"routes/4.xml\")"
attr iterationvarsf count=xmldoc(#22routes#2f4.xml#22)-
attr measurement "$count=xmldoc(\"routes/4.xml\")"
attr network InfrastructureShowcaseA
attr processid 6084
attr repetition 0
attr replication #0
attr resultdir results
attr runnumber 4
attr seedset 4
itervar count "xmldoc(\"routes/4.xml\")"
param *.visualizer.*.dataLinkVisualizer.fadeOutAnimationSpeed 0.000005
param **.constraintAreaMinX 0m
param **.constraintAreaMaxX 640m
param **.constraintAreaMinY 0m
param **.constraintAreaMaxY 420m
param **.constraintAreaMinZ 0m
param **.constraintAreaMaxZ 0m
param *.host1.mobility.typename "\"TurtleMobility\""
param *.host1.mobility.turtleScript "xmldoc(\"routes/4.xml\")"
param *.host1.mobility.outputFile "\"posTime.txt\""
param *.host1.numApps 1
param *.host1.app[0].typename "\"UdpBasicApp\""
param *.host1.app[0].destAddresses "\"standardHost\""
param *.host1.app[0].destPort 1000
param *.host1.app[0].messageLength 100Byte
param *.host1.app[0].sendInterval 100ms
param **.arp.typename "\"GlobalArp\""
param **.netmaskRoutes "\"\""
param *.visualizer.*.dataLinkVisualizer.displayLinks true
param *.visualizer.*.dataLinkVisualizer.activityLevel "\"peer\""
param *.visualizer.*.ieee80211Visualizer.displayAssociations true
param **.radio.transmitter.power 2.0mW
param *.AP*.wlan[*].radio.displayCommunicationRange true
param **.radioMedium.recordCommunicationLog true

vector 0 InfrastructureShowcaseA.host1.wlan[0].radio radioMode:vector ETV
attr interpolationmode sample-hold
attr source radioModeChanged
attr title "Radio mode, vector"
vector 1 InfrastructureShowcaseA.host1.wlan[0].radio radioChannel:vector ETV
attr interpolationmode sample-hold
attr source radioChannelChanged
attr title "Radio channel, vector"
vector 2 InfrastructureShowcaseA.AP3.wlan[0].radio radioMode:vector ETV
attr interpolationmode sample-hold
attr source radioModeChanged
attr title "Radio mode, vector"
vector 3 InfrastructureShowcaseA.AP3.wlan[0].radio radioChannel:vector ETV
attr interpolationmode sample-hold
attr source radioChannelChanged
attr title "Radio channel, vector"
vector 4 InfrastructureShowcaseA.AP2.wlan[0].radio radioMode:vector ETV
attr interpolationmode sample-hold
attr source radioModeChanged
attr title "Radio mode, vector"
vector 5 InfrastructureShowcaseA.AP2.wlan[0].radio radioChannel:vector ETV
attr interpolationmode sample-hold
attr source radioChannelChanged
attr title "Radio channel, vector"
vector 6 InfrastructureShowcaseA.AP1.wlan[0].radio radioMode:vector ETV
attr interpolationmode sample-hold
attr source radioModeChanged
attr title "Radio mode, vector"
vector 7 InfrastructureShowcaseA.AP1.wlan[0].radio radioChannel:vector ETV
attr interpolationmode sample-hold
attr source radioChannelChanged
attr title "Radio channel, vector"
vector 8 InfrastructureShowcaseA.host1.wlan[0].radio receptionState:vector ETV
attr interpolationmode sample-hold
attr source receptionStateChanged
attr title "Radio reception state, vector"
vector 9 InfrastructureShowcaseA.host1.wlan[0].mac.dcf.channelAccess.contention state:vector ETV
attr interpolationmode none
attr source stateChanged
attr title "contention state, vector"
vector 10 InfrastructureShowcaseA.host1.wlan[0].mac.hcf.edca.edcaf[0].contention state:vector ETV
attr interpolationmode none
attr source stateChanged
attr title "contention state, vector"
vector 11 InfrastructureShowcaseA.host1.wlan[0].mac.hcf.edca.edcaf[1].contention state:vector ETV
attr interpolationmode none
attr source stateChanged
attr title "contention state, vector"
vector 12 InfrastructureShowcaseA.host1.wlan[0].mac.hcf.edca.edcaf[2].contention state:vector ETV
attr interpolationmode none
attr source stateChanged
attr title "contention state, vector"
vector 13 InfrastructureShowcaseA.host1.wlan[0].mac.hcf.edca.edcaf[3].contention state:vector ETV
attr interpolationmode none
attr source stateChanged
attr title "contention state, vector"
vector 14 InfrastructureShowcaseA.AP3.wlan[0].radio receptionState:vector ETV
attr interpolationmode sample-hold
attr source receptionStateChanged
attr title "Radio reception state, vector"
vector 15 InfrastructureShowcaseA.AP3.wlan[0].mac.dcf.channelAccess.contention state:vector ETV
attr interpolationmode none
attr source stateChanged
attr title "contention state, vector"
vector 16 InfrastructureShowcaseA.AP3.wlan[0].mac.hcf.edca.edcaf[0].contention state:vector ETV
attr interpolationmode none
attr source stateChanged
attr title "contention state, vector"
vector 17 InfrastructureShowcaseA.AP3.wlan[0].mac.hcf.edca.edcaf[1].contention state:vector ETV
attr interpolationmode none
attr source stateChanged
attr title "contention state, vector"
vector 18 InfrastructureShowcaseA.AP3.wlan[0].mac.hcf.edca.edcaf[2].contention state:vector ETV
attr interpolationmode none
attr source stateChanged
attr title "contention state, vector"
vector 19 InfrastructureShowcaseA.AP3.wlan[0].mac.hcf.edca.edcaf[3].contention state:vector ETV
attr interpolationmode none
attr source stateChanged
attr title "contention state, vector"
vector 20 InfrastructureShowcaseA.AP2.wlan[0].radio receptionState:vector ETV
attr interpolationmode sample-hold
attr source receptionStateChanged
attr title "Radio reception state, vector"
vector 21 InfrastructureShowcaseA.AP2.wlan[0].mac.dcf.channelAccess.contention state:vector ETV
attr interpolationmode none
attr source stateChanged
attr title "contention state, vector"
vector 22 InfrastructureShowcaseA.AP2.wlan[0].mac.hcf.edca.edcaf[0].contention state:vector ETV
attr interpolationmode none
attr source stateChanged
attr title "contention state, vector"
vector 23 InfrastructureShowcaseA.AP2.wlan[0].mac.hcf.edca.edcaf[1].contention state:vector ETV
attr interpolationmode none
attr source stateChanged
attr title "contention state, vector"
vector 24 InfrastructureShowcaseA.AP2.wlan[0].mac.hcf.edca.edcaf[2].contention state:vector ETV
attr interpolationmode none
attr source stateChanged
attr title "contention state, vector"
vector 25 InfrastructureShowcaseA.AP2.wlan[0].mac.hcf.edca.edcaf[3].contention state:vector ETV
attr interpolationmode none
attr source stateChanged
attr title "contention state, vector"
vector 26 InfrastructureShowcaseA.AP1.wlan[0].radio receptionState:vector ETV
attr interpolationmode sample-hold
attr source receptionStateChanged
attr title "Radio reception state, vector"
vector 27 InfrastructureShowcaseA.AP1.wlan[0].mac.dcf.channelAccess.contention state:vector ETV
attr interpolationmode none
attr source stateChanged
attr title "contention state, vector"
vector 28 InfrastructureShowcaseA.AP1.wlan[0].mac.hcf.edca.edcaf[0].contention state:vector ETV
attr interpolationmode none
attr source stateChanged
attr title "contention state, vector"
vector 29 InfrastructureShowcaseA.AP1.wlan[0].mac.hcf.edca.edcaf[1].contention state:vector ETV
attr interpolationmode none
attr source stateChanged
attr title "contention state, vector"
vector 30 InfrastructureShowcaseA.AP1.wlan[0].mac.hcf.edca.edcaf[2].contention state:vector ETV
attr interpolationmode none
attr source stateChanged
attr title "contention state, vector"
vector 31 InfrastructureShowcaseA.AP1.wlan[0].mac.hcf.edca.edcaf[3].contention state:vector ETV
attr interpolationmode none
attr source stateChanged
attr title "contention state, vector"
vector 32 InfrastructureShowcaseA.AP2.wlan[0].mac sentDownPk:vector(packetBytes) ETV
attr interpolationmode none
attr source packetSentToLower
attr title "packets sent to lower layer, vector(packetBytes)"
vector 33 InfrastructureShowcaseA.AP2.wlan[0].radio transmissionState:vector ETV
attr interpolationmode sample-hold
attr source transmissionStateChanged
attr title "Radio transmission state, vector"
vector 34 InfrastructureShowcaseA.host1.wlan[0].mac rcvdPkFromLl:vector(packetBytes) ETV
attr interpolationmode none
attr source packetReceivedFromLower
attr title "packets received from lower layer, vector(packetBytes)"
vector 35 InfrastructureShowcaseA.AP3.wlan[0].mac sentDownPk:vector(packetBytes) ETV
attr interpolationmode none
attr source packetSentToLower
attr title "packets sent to lower layer, vector(packetBytes)"
vector 36 InfrastructureShowcaseA.AP3.wlan[0].radio transmissionState:vector ETV
attr interpolationmode sample-hold
attr source transmissionStateChanged
attr title "Radio transmission state, vector"
vector 37 InfrastructureShowcaseA.AP1.wlan[0].mac sentDownPk:vector(packetBytes) ETV
attr interpolationmode none
attr source packetSentToLower
attr title "packets sent to lower layer, vector(packetBytes)"
vector 38 InfrastructureShowcaseA.AP1.wlan[0].radio transmissionState:vector ETV
attr interpolationmode sample-hold
attr source transmissionStateChanged
attr title "Radio transmission state, vector"
vector 39 InfrastructureShowcaseA.host1.app[0] packetSent:vector(packetBytes) ETV
attr interpolationmode none
attr source packetSent
attr title "packets sent, vector(packetBytes)"
vector 40 InfrastructureShowcaseA.host1.udp packetSent:vector(packetBytes) ETV
attr interpolationmode none
attr source packetSent
attr title "packets sent, vector(packetBytes)"
vector 41 InfrastructureShowcaseA.host1.wlan[0].mac rcvdPkFromHl:vector(packetBytes) ETV
attr interpolationmode none
attr source packetReceivedFromUpper
attr title "packets received from higher layer, vector(packetBytes)"
vector 42 InfrastructureShowcaseA.host1.wlan[0].agent sentRequest:vector ETV
attr title "sent requests, vector"
vector 43 InfrastructureShowcaseA.host1.wlan[0].mac sentDownPk:vector(packetBytes) ETV
attr interpolationmode none
attr source packetSentToLower
attr title "packets sent to lower layer, vector(packetBytes)"
vector 44 InfrastructureShowcaseA.host1.wlan[0].radio transmissionState:vector ETV
attr interpolationmode sample-hold
attr source transmissionStateChanged
attr title "Radio transmission state, vector"
vector 45 InfrastructureShowcaseA.AP2.wlan[0].mac rcvdPkFromLl:vector(packetBytes) ETV
attr interpolationmode none
attr source packetReceivedFromLower
attr title "packets received from lower layer, vector(packetBytes)"
vector 46 InfrastructureShowcaseA.AP3.wlan[0].mac rcvdPkFromLl:vector(packetBytes) ETV
attr interpolationmode none
attr source packetReceivedFromLower
attr title "packets received from lower layer, vector(packetBytes)"
vector 47 InfrastructureShowcaseA.host1.wlan[0].mac packetDropIncorrectlyReceived:vector(packetBytes) ETV
attr interpolationmode none
attr source packetDropReasonIsIncorrectlyReceived(packetDropped)
attr title "packet drop: incorrectly received, vector(packetBytes)"
vector 48 InfrastructureShowcaseA.AP3.wlan[0].mac packetDropNotAddressedToUs:vector(packetBytes) ETV
attr interpolationmode none
attr source packetDropReasonIsNotAddressedToUs(packetDropped)
attr title "packet drop: not addressed to us, vector(packetBytes)"
vector 49 InfrastructureShowcaseA.AP2.wlan[0].mac packetDropNotAddressedToUs:vector(packetBytes) ETV
attr interpolationmode none
attr source packetDropReasonIsNotAddressedToUs(packetDropped)
attr title "packet drop: not addressed to us, vector(packetBytes)"
vector 50 InfrastructureShowcaseA.host1.wlan[0].agent acceptConfirm:vector ETV
attr title "accepted confirms, vector"
vector 51 InfrastructureShowcaseA.AP2.wlan[0].mac passedUpPk:vector(packetBytes) ETV
attr interpolationmode none
attr source packetSentToUpper
attr title "packets passed to higher layer, vector(packetBytes)"
vector 52 InfrastructureShowcaseA.AP2.eth[0].mac packetReceivedFromUpper:vector(packetBytes) ETV
attr interpolationmode none
attr source packetReceivedFromUpper
attr title "packet bytes from higher layer, vector(packetBytes)"
vector 53 InfrastructureShowcaseA.AP2.eth[0].mac txPk:vector(packetBytes) ETV
attr interpolationmode none
attr source packetSentToLower
attr title "packets transmitted, vector(packetBytes)"
vector 54 InfrastructureShowcaseA.etherSwitch.eth[2].mac rxPkOk:vector(packetBytes) ETV
attr interpolationmode none
attr source rxPkOk
attr title "packets received OK, vector(packetBytes)"
vector 55 InfrastructureShowcaseA.etherSwitch.eth[2].mac passedUpPk:vector(packetBytes) ETV
attr interpolationmode none
attr source packetSentToUpper
attr title "packets passed to higher layer, vector(packetBytes)"
vector 56 InfrastructureShowcaseA.etherSwitch.eth[0].mac packetReceivedFromUpper:vector(packetBytes) ETV
attr interpolationmode none
attr source packetReceivedFromUpper
attr title "packet bytes from higher layer, vector(packetBytes)"
vector 57 InfrastructureShowcaseA.etherSwitch.eth[1].mac packetReceivedFromUpper:vector(packetBytes) ETV
attr interpolationmode none
attr source packetReceivedFromUpper
attr title "packet bytes from higher layer, vector(packetBytes)"
vector 58 InfrastructureShowcaseA.etherSwitch.eth[3].mac packetReceivedFromUpper:vector(packetBytes) ETV
attr interpolationmode none
attr source packetReceivedFromUpper
attr title "packet bytes from higher layer, vector(packetBytes)"
vector 59 InfrastructureShowcaseA.etherSwitch.eth[0].mac txPk:vector(packetBytes) ETV
attr interpolationmode none
attr source packetSentToLower
attr title "packets transmitted, vector(packetBytes)"
vector 60 InfrastructureShowcaseA.etherSwitch.eth[1].mac txPk:vector(packetBytes) ETV
attr interpolationmode none
attr source packetSentToLower
attr title "packets transmitted, vector(packetBytes)"
vector 61 InfrastructureShowcaseA.etherSwitch.eth[3].mac txPk:vector(packetBytes) ETV
attr interpolationmode none
attr source packetSentToLower
attr title "packets transmitted, vector(packetBytes)"
vector 62 InfrastructureShowcaseA.AP3.eth[0].mac rxPkOk:vector(packetBytes) ETV
attr interpolationmode none
attr source rxPkOk
attr title "packets received OK, vector(packetBytes)"
vector 63 InfrastructureShowcaseA.AP3.eth[0].mac passedUpPk:vector(packetBytes) ETV
attr interpolationmode none
attr source packetSentToUpper
attr title "packets passed to higher layer, vector(packetBytes)"
vector 64 InfrastructureShowcaseA.AP1.eth[0].mac rxPkOk:vector(packetBytes) ETV
attr interpolationmode none
attr source rxPkOk
attr title "packets received OK, vector(packetBytes)"
vector 65 InfrastructureShowcaseA.AP1.eth[0].mac passedUpPk:vector(packetBytes) ETV
attr interpolationmode none
attr source packetSentToUpper
attr title "packets passed to higher layer, vector(packetBytes)"
vector 66 InfrastructureShowcaseA.standardHost.eth[0].mac rxPkOk:vector(packetBytes) ETV
attr interpolationmode none
attr source rxPkOk
attr title "packets received OK, vector(packetBytes)"
vector 67 InfrastructureShowcaseA.standardHost.eth[0].mac passedUpPk:vector(packetBytes) ETV
attr interpolationmode none
attr source packetSentToUpper
attr title "packets passed to higher layer, vector(packetBytes)"
vector 68 InfrastructureShowcaseA.standardHost.eth[0].encap decapPk:vector(packetBytes) ETV
attr interpolationmode none
attr source decapPk
attr title "packets decapsulated, vector(packetBytes)"
vector 69 InfrastructureShowcaseA.AP3.wlan[0].mac rcvdPkFromHl:vector(packetBytes) ETV
attr interpolationmode none
attr source packetReceivedFromUpper
attr title "packets received from higher layer, vector(packetBytes)"
vector 70 InfrastructureShowcaseA.AP1.wlan[0].mac rcvdPkFromHl:vector(packetBytes) ETV
attr interpolationmode none
attr source packetReceivedFromUpper
attr title "packets received from higher layer, vector(packetBytes)"
vector 71 InfrastructureShowcaseA.standardHost.udp packetReceived:vector(packetBytes) ETV
attr interpolationmode none
attr source packetReceived
attr title "packets received, vector(packetBytes)"
vector 72 InfrastructureShowcaseA.standardHost.udp droppedPkWrongPort:vector(count) ETV
attr interpolationmode none
attr source packetDropReasonIsNoPortFound(packetDropped)
attr title "packets dropped (wrong port), vector(count)"
vector 73 InfrastructureShowcaseA.standardHost.eth[0].encap encapPk:vector(packetBytes) ETV
attr interpolationmode none
attr source encapPk
attr title "packets encapsulated, vector(packetBytes)"
vector 74 InfrastructureShowcaseA.standardHost.eth[0].mac packetReceivedFromUpper:vector(packetBytes) ETV
attr interpolationmode none
attr source packetReceivedFromUpper
attr title "packet bytes from higher layer, vector(packetBytes)"
vector 75 InfrastructureShowcaseA.standardHost.eth[0].mac txPk:vector(packetBytes) ETV
attr interpolationmode none
attr source packetSentToLower
attr title "packets transmitted, vector(packetBytes)"
vector 76 InfrastructureShowcaseA.etherSwitch.eth[3].mac rxPkOk:vector(packetBytes) ETV
attr interpolationmode none
attr source rxPkOk
attr title "packets received OK, vector(packetBytes)"
vector 77 InfrastructureShowcaseA.etherSwitch.eth[3].mac passedUpPk:vector(packetBytes) ETV
attr interpolationmode none
attr source packetSentToUpper
attr title "packets passed to higher layer, vector(packetBytes)"
vector 78 InfrastructureShowcaseA.etherSwitch.eth[2].mac packetReceivedFromUpper:vector(packetBytes) ETV
attr interpolationmode none
attr source packetReceivedFromUpper
attr title "packet bytes from higher layer, vector(packetBytes)"
vector 79 InfrastructureShowcaseA.etherSwitch.eth[2].mac txPk:vector(packetBytes) ETV
attr interpolationmode none
attr source packetSentToLower
attr title "packets transmitted, vector(packetBytes)"
vector 80 InfrastructureShowcaseA.AP2.eth[0].mac rxPkOk:vector(packetBytes) ETV
attr interpolationmode none
attr source rxPkOk
attr title "packets received OK, vector(packetBytes)"
vector 81 InfrastructureShowcaseA.AP2.eth[0].mac passedUpPk:vector(packetBytes) ETV
attr interpolationmode none
attr source packetSentToUpper
attr title "packets passed to higher layer, vector(packetBytes)"
vector 82 InfrastructureShowcaseA.AP2.wlan[0].mac rcvdPkFromHl:vector(packetBytes) ETV
attr interpolationmode none
attr source packetReceivedFromUpper
attr title "packets received from higher layer, vector(packetBytes)"
vector 83 InfrastructureShowcaseA.host1.wlan[0].mac passedUpPk:vector(packetBytes) ETV
attr interpolationmode none
attr source packetSentToUpper
attr title "packets passed to higher layer, vector(packetBytes)"
vector 84 InfrastructureShowcaseA.AP1.wlan[0].mac rcvdPkFromLl:vector(packetBytes) ETV
attr interpolationmode none
attr source packetReceivedFromLower
attr title "packets received from lower layer, vector(packetBytes)"
vector 85 InfrastructureShowcaseA.AP1.wlan[0].mac packetDropNotAddressedToUs:vector(packetBytes) ETV
attr interpolationmode none
attr source packetDropReasonIsNotAddressedToUs(packetDropped)
attr title "packet drop: not addressed to us, vector(packetBytes)"
vector 86 InfrastructureShowcaseA.host1.wlan[0].mac packetDropRetryLimitReached:vector(packetBytes) ETV
attr interpolationmode none
attr source packetDropReasonIsRetryLimitReached(packetDropped)
attr title "packet drop: retry limit reached, vector(packetBytes)"
vector 87 InfrastructureShowcaseA.AP1.wlan[0].mac passedUpPk:vector(packetBytes) ETV
attr interpolationmode none
attr source packetSentToUpper
attr title "packets passed to higher layer, vector(packetBytes)"
vector 88 InfrastructureShowcaseA.AP1.eth[0].mac packetReceivedFromUpper:vector(packetBytes) ETV
attr interpolationmode none
attr source packetReceivedFromUpper
attr title "packet bytes from higher layer, vector(packetBytes)"
vector 89 InfrastructureShowcaseA.AP1.eth[0].mac txPk:vector(packetBytes) ETV
attr interpolationmode none
attr source packetSentToLower
attr title "packets transmitted, vector(packetBytes)"
vector 90 InfrastructureShowcaseA.etherSwitch.eth[1].mac rxPkOk:vector(packetBytes) ETV
attr interpolationmode none
attr source rxPkOk
attr title "packets received OK, vector(packetBytes)"
vector 91 InfrastructureShowcaseA.etherSwitch.eth[1].mac passedUpPk:vector(packetBytes) ETV
attr interpolationmode none
attr source packetSentToUpper
attr title "packets passed to higher layer, vector(packetBytes)"
vector 92 InfrastructureShowcaseA.AP3.wlan[0].mac packetDropIncorrectlyReceived:vector(packetBytes) ETV
attr interpolationmode none
attr source packetDropReasonIsIncorrectlyReceived(packetDropped)
attr title "packet drop: incorrectly received, vector(packetBytes)"
vector 93 InfrastructureShowcaseA.AP1.wlan[0].mac packetDropIncorrectlyReceived:vector(packetBytes) ETV
attr interpolationmode none
attr source packetDropReasonIsIncorrectlyReceived(packetDropped)
attr title "packet drop: incorrectly received, vector(packetBytes)"
vector 94 InfrastructureShowcaseA.AP3.wlan[0].mac passedUpPk:vector(packetBytes) ETV
attr interpolationmode none
attr source packetSentToUpper
attr title "packets passed to higher layer, vector(packetBytes)"
vector 95 InfrastructureShowcaseA.AP3.eth[0].mac packetReceivedFromUpper:vector(packetBytes) ETV
attr interpolationmode none
attr source packetReceivedFromUpper
attr title "packet bytes from higher layer, vector(packetBytes)"
vector 96 InfrastructureShowcaseA.AP3.eth[0].mac txPk:vector(packetBytes) ETV
attr interpolationmode none
attr source packetSentToLower
attr title "packets transmitted, vector(packetBytes)"
vector 97 InfrastructureShowcaseA.etherSwitch.eth[0].mac rxPkOk:vector(packetBytes) ETV
attr interpolationmode none
attr source rxPkOk
attr title "packets received OK, vector(packetBytes)"
vector 98 InfrastructureShowcaseA.etherSwitch.eth[0].mac passedUpPk:vector(packetBytes) ETV
attr interpolationmode none
attr source packetSentToUpper
attr title "packets passed to higher layer, vector(packetBytes)"
vector 99 InfrastructureShowcaseA.host1.wlan[0].agent dropConfirm:vector ETV
attr title "dropped confirms, vector"
0	21655 124220 0 210415 0 140.400539476678 5519 0 3 13792 35858
1	145875 1324 0 139697 0 95.623990716971 52 0 0 0 0
2	147199 101130 0 210296 0 140.322496592672 3785 0 3 9457 24587
3	248329 8 0 0 0 0 1 0 0 0 0
4	248337 120845 0 210276 0 140.300669025699 4611 0 3 11522 29956
5	369182 8 0 0 0 0 1 0 0 0 0
6	369190 149630 0 210397 0 140.400494738345 5549 0 3 13867 36053
7	518820 8 0 0 0 0 1 0 0 0 0
8	518828 380612 0 210415 0 140.400539476678 15158 0 3 22037 50943
9	899440 735662 0 210415 0 140.400539476678 30986 0 2 5706 11382
10	1635102 670174 0 210415 0 140.400539476678 25370 0 0 0 0
11	2305276 670174 0 210415 0 140.400539476678 25370 0 0 0 0
12	2975450 670174 0 210415 0 140.400539476678 25370 0 0 0 0
13	3645624 670174 0 210415 0 140.400539476678 25370 0 0 0 0
14	4315798 217626 0 210416 0 140.400539747588 7859 0 3 9921 21657
15	4533424 677972 0 210416 0 140.400539747588 24498 0 2 7144 13848
16	5211396 492576 0 210416 0 140.400539747588 17810 0 0 0 0
17	5703972 492576 0 210416 0 140.400539747588 17810 0 0 0 0
18	6196548 492576 0 210416 0 140.400539747588 17810 0 0 0 0
19	6689124 492576 0 210416 0 140.400539747588 17810 0 0 0 0
20	7181700 173532 0 210276 0 140.300669025699 6423 0 3 5927 11345
21	7355232 502637 0 210422 0 140.400623025699 18467 0 2 8544 15976
22	7857869 299340 0 210276 0 140.300669025699 11046 0 0 0 0
23	8157209 299340 0 210276 0 140.300669025699 11046 0 0 0 0
24	8456549 299340 0 210276 0 140.300669025699 11046 0 0 0 0
25	8755889 299340 0 210276 0 140.300669025699 11046 0 0 0 0
26	9055229 239099 0 210418 0 140.400540215009 8533 0 3 8690 17424
27	9294328 654216 0 210418 0 140.400540215009 23424 0 2 9876 18504
28	9948544 414354 0 210418 0 140.400540215009 14824 0 0 0 0
29	10362898 414354 0 210418 0 140.400540215009 14824 0 0 0 0
30	10777252 414354 0 210418 0 140.400540215009 14824 0 0 0 0
31	11191606 414354 0 210418 0 140.400540215009 14824 0 0 0 0
32	11605960 65018 5 210269 0.000623025699 140.300623025699 2304 14 92 114910 7105980
33	11670978 250858 6 210276 0.000623025699 140.300669025699 9216 0 2 9216 13824
34	11921836 137720 14 210399 0.000669294606 140.400495476678 4816 14 92 250738 17268780
35	12059556 54335 23 210289 0.022450592672 140.322450592672 1891 14 92 94766 5499668
36	12113891 209776 24 210296 0.022450592672 140.322496592672 7564 0 2 7564 11346
37	12323667 80349 41 210390 0.069842023938 140.400436738345 2773 14 92 144358 9621340
38	12404016 310304 42 210397 0.069842023938 140.400494738345 11092 0 2 11092 16638
39	12714320 25985 54 210322 0.1 140.4 1404 100 100 140400 14040000
40	12740305 25985 56 210323 0.1 140.4 1404 108 108 151632 16376256
41	12766290 25986 59 210326 0.1 140.4 1404 136 136 190944 25968384
42	12792276 1367 111 139693 0.17926686171 95.623990716971 51 1 4 67 123
43	12793643 65610 177 210407 0.27926686171 140.400505476678 2758 14 164 241984 36606552
44	12859253 259424 178 210415 0.27926686171 140.400539476678 11032 0 2 11032 16548
45	13118677 25232 186 69619 0.279305121397 45.100380480868 901 14 164 79594 12088644
46	13143909 55742 190 210417 0.279305673156 140.400539747588 1915 14 164 169250 25698484
47	13199651 3196 213 207528 0.27982248461 138.60069545147 110 48 92 10076 924880
48	13202847 41342 253 210417 0.280226192516 140.400539747588 1423 14 164 129846 19829348
49	13244189 25 280 280 0.280527263629 0.280527263629 1 14 14 14 196
50	13244214 315 466 139755 0.57926686171 95.624824365203 12 1 4 28 84
51	13244529 12729 688 69538 0.600082249081 45.10008282695 446 136 136 60656 8249216
52	13257258 12729 691 69541 0.600082249081 45.10008282695 446 146 146 65116 9506936
53	13269987 12729 702 69549 0.600094569081 45.10009514695 446 146 146 65116 9506936
54	13282716 12729 703 69550 0.600094619081 45.10009519695 446 146 146 65116 9506936
55	13295445 12729 703 69550 0.600094619081 45.10009519695 446 146 146 65116 9506936
56	13308174 6256 705 132652 0.600094619081 85.10011417695 217 74 146 16130 1204132
57	13314430 18086 706 210371 0.600094619081 140.400114088345 618 74 146 45804 3400008
58	13332516 37852 707 210355 0.600094619081 140.400095108345 1279 146 146 186734 27263164
59	13370368 6256 710 132655 0.600106939081 85.10012073695 217 74 146 16130 1204132
60	13376624 18086 711 210374 0.600106939081 140.400120648345 618 74 146 45804 3400008
61	13394710 37852 712 210358 0.600106939081 140.400107428345 1279 146 146 186734 27263164
62	13432562 6256 713 132656 0.600106989081 85.10012078695 217 74 146 16130 1204132
63	13438818 6256 713 132656 0.600106989081 85.10012078695 217 74 146 16130 1204132
64	13445074 18086 714 210375 0.600106989081 140.400120698345 618 74 146 45804 3400008
65	13463160 18086 714 210375 0.600106989081 140.400120698345 618 74 146 45804 3400008
66	13481246 37852 715 210359 0.600106989081 140.400107478345 1279 146 146 186734 27263164
67	13519098 37852 715 210359 0.600106989081 140.400107478345 1279 146 146 186734 27263164
68	13556950 37852 718 210360 0.600106989081 140.400107478345 1279 128 128 163712 20955136
69	13594802 6256 722 132659 0.600106989081 85.10012078695 217 64 136 13960 903232
70	13601058 18086 723 210378 0.600106989081 140.400120698345 618 64 136 39624 2545728
71	13619144 37852 724 210362 0.600106989081 140.400107478345 1279 108 108 138132 14918256
72	13656996 38024 724 210362 0.600106989081 140.400107478345 1279 1 1279 818560 698231680
73	13695020 36573 726 210364 0.600106989081 140.400107478345 1279 56 56 71624 4010944
74	13731593 36573 727 210365 0.600106989081 140.400107478345 1279 74 74 94646 7003804
75	13768166 36573 732 210368 0.600113549081 140.400114038345 1279 74 74 94646 7003804
76	13804739 36573 733 210369 0.600113599081 140.400114088345 1279 74 74 94646 7003804
77	13841312 36573 733 210369 0.600113599081 140.400114088345 1279 74 74 94646 7003804
78	13877885 12283 735 69568 0.600113599081 45.10011417695 446 74 74 33004 2442296
79	13890168 12283 738 69571 0.600120159081 45.10012073695 446 74 74 33004 2442296
80	13902451 12283 739 69572 0.600120209081 45.10012078695 446 74 74 33004 2442296
81	13914734 12283 739 69572 0.600120209081 45.10012078695 446 74 74 33004 2442296
82	13927017 12283 742 69575 0.600120209081 45.10012078695 446 64 64 28544 1826816
83	13939300 36578 780 210399 0.601190498125 140.400495476678 1279 64 64 81856 5238784
84	13975878 42554 59560 210419 38.90008282695 140.400540215009 1437 14 164 125410 19005220
85	14018432 4212 59560 70364 38.90008282695 45.550929249236 148 14 164 14672 2271808
86	14022644 263 69856 133232 45.235303975013 85.469333 10 164 164 1640 268960
87	14022907 18677 70817 210340 45.900082615252 140.400082738345 617 136 136 83912 11412032
88	14041584 18677 70820 210343 45.900082615252 140.400082738345 617 146 146 90082 13151972
89	14060261 18677 70829 210352 45.900094935252 140.400095058345 617 146 146 90082 13151972
90	14078938 18677 70830 210353 45.900094985252 140.400095108345 617 146 146 90082 13151972
91	14097615 18677 70830 210353 45.900094985252 140.400095108345 617 146 146 90082 13151972
92	14116292 1393 70904 210085 45.900639619794 140.200659757744 48 14 14 672 9408
93	14117685 1197 70906 210087 45.900639845722 140.200660231847 41 14 14 574 8036
94	14118882 6446 99182 132620 63.600082280591 85.10008282695 216 136 136 29376 3995136
95	14125328 6446 99185 132623 63.600082280591 85.10008282695 216 146 146 31536 4604256
96	14131774 6446 99195 132633 63.600094600591 85.10009514695 216 146 146 31536 4604256
97	14138220 6446 99196 132634 63.600094650591 85.10009519695 216 146 146 31536 4604256
98	14144666 6446 99196 132634 63.600094650591 85.10009519695 216 146 146 31536 4604256
99	14151112 1053 133415 139343 85.72249742032 95.22249742032 39 1 1 39 39
0	14152165 126675 210486 412837 140.5 275.07253542032 5312 2 3 13280 34528
1	14278840 1386 244376 412771 161.519888853059 274.97249742032 51 0 0 0 0
2	14280226 126562 210446 412876 140.422450592672 275.122496592672 4528 2 3 11320 29432
4	14406788 123892 210426 412860 140.400623025699 275.100669025699 4436 2 3 11090 28834
6	14530680 121146 210464 412892 140.469842023938 275.169888023938 4334 2 3 10835 28171
8	14651826 395048 210448 412837 140.422450863709 275.07253542032 14932 0 3 21900 50718
9	15046874 769492 210448 412837 140.422450863709 275.07253542032 30618 0 2 5732 11408
10	15816366 695286 210448 412837 140.422450863709 275.07253542032 25054 0 0 0 0